created by fftool

3000 atoms
2000 bonds
1000 angles
2 atom types
1 bond types
1 angle types
0.000000 29.000000 xlo xhi
0.000000 29.000000 ylo yhi
0.000000 29.000000 zlo zhi

Masses

   1   15.999  # O
   2   12.011  # C

Bond Coeffs

   1 10755.258126     1.149000  # C-O

Angle Coeffs

   1   147.705545   180.000000  # O-C-O

Atoms

      1       1    1  -0.3256  1.131195e+01  7.028868e+00  2.559967e+01  # O CO2
      2       1    2   0.6512  1.199755e+01  6.111685e+00  2.550515e+01  # C CO2
      3       1    1  -0.3256  1.268315e+01  5.194502e+00  2.541063e+01  # O CO2
      4       2    1  -0.3256  1.732965e+01  2.315177e+01  9.848933e+00  # O CO2
      5       2    2   0.6512  1.765787e+01  2.257337e+01  8.911954e+00  # C CO2
      6       2    1  -0.3256  1.798609e+01  2.199498e+01  7.974975e+00  # O CO2
      7       3    1  -0.3256  7.419800e+00  8.613021e+00  1.655830e+01  # O CO2
      8       3    2   0.6512  8.107876e+00  8.823822e+00  1.566257e+01  # C CO2
      9       3    1  -0.3256  8.795952e+00  9.034622e+00  1.476685e+01  # O CO2
     10       4    1  -0.3256  8.807726e+00  2.707852e+01  1.900000e-04  # O CO2
     11       4    2   0.6512  8.932119e+00  2.613319e+01  6.413380e-01  # C CO2
     12       4    1  -0.3256  9.056513e+00  2.518785e+01  1.282487e+00  # O CO2
     13       5    1  -0.3256  1.839899e+01  2.303935e+01  2.062775e+01  # O CO2
     14       5    2   0.6512  1.954022e+01  2.291236e+01  2.066858e+01  # C CO2
     15       5    1  -0.3256  2.068145e+01  2.278537e+01  2.070942e+01  # O CO2
     16       6    1  -0.3256  2.019180e-01  2.298265e+01  2.153065e+01  # O CO2
     17       6    2   0.6512  1.180326e+00  2.241185e+01  2.133801e+01  # C CO2
     18       6    1  -0.3256  2.158733e+00  2.184106e+01  2.114536e+01  # O CO2
     19       7    1  -0.3256  2.729145e+01  1.716919e+01  5.308739e+00  # O CO2
     20       7    2   0.6512  2.735542e+01  1.825164e+01  5.688739e+00  # C CO2
     21       7    1  -0.3256  2.741938e+01  1.933410e+01  6.068739e+00  # O CO2
     22       8    1  -0.3256  1.482850e+01  1.372710e+01  1.486639e+01  # O CO2
     23       8    2   0.6512  1.591762e+01  1.401106e+01  1.509744e+01  # C CO2
     24       8    1  -0.3256  1.700674e+01  1.429503e+01  1.532849e+01  # O CO2
     25       9    1  -0.3256  1.157778e+01  2.073646e+00  1.540436e+00  # O CO2
     26       9    2   0.6512  1.122324e+01  1.036818e+00  1.194761e+00  # C CO2
     27       9    1  -0.3256  1.086870e+01 -1.000000e-05  8.490870e-01  # O CO2
     28      10    1  -0.3256  1.241651e+01  1.875125e+00  3.564534e+00  # O CO2
     29      10    2   0.6512  1.300853e+01  9.375560e-01  3.263405e+00  # C CO2
     30      10    1  -0.3256  1.360054e+01 -1.300000e-05  2.962277e+00  # O CO2
     31      11    1  -0.3256  1.568676e+01  9.228118e+00  1.419740e+01  # O CO2
     32      11    2   0.6512  1.472846e+01  8.920729e+00  1.364297e+01  # C CO2
     33      11    1  -0.3256  1.377017e+01  8.613340e+00  1.308854e+01  # O CO2
     34      12    1  -0.3256  2.587739e+01  2.713142e+01  2.940044e+00  # O CO2
     35      12    2   0.6512  2.692591e+01  2.675356e+01  3.219384e+00  # C CO2
     36      12    1  -0.3256  2.797443e+01  2.637571e+01  3.498725e+00  # O CO2
     37      13    1  -0.3256  2.715431e+01  1.459803e+01  1.370000e-04  # O CO2
     38      13    2   0.6512  2.602623e+01  1.437981e+01  4.367000e-03  # C CO2
     39      13    1  -0.3256  2.489815e+01  1.416159e+01  8.597000e-03  # O CO2
     40      14    1  -0.3256  1.773177e+01  2.619573e+01  2.222418e+01  # O CO2
     41      14    2   0.6512  1.684949e+01  2.570362e+01  2.277153e+01  # C CO2
     42      14    1  -0.3256  1.596720e+01  2.521150e+01  2.331888e+01  # O CO2
     43      15    1  -0.3256  1.989776e+01  2.260397e+01  2.446085e+01  # O CO2
     44      15    2   0.6512  2.033968e+01  2.166971e+01  2.395881e+01  # C CO2
     45      15    1  -0.3256  2.078161e+01  2.073544e+01  2.345677e+01  # O CO2
     46      16    1  -0.3256  8.892677e+00  6.369357e+00  2.025525e+01  # O CO2
     47      16    2   0.6512  9.697255e+00  7.155546e+00  2.048927e+01  # C CO2
     48      16    1  -0.3256  1.050183e+01  7.941735e+00  2.072328e+01  # O CO2
     49      17    1  -0.3256  2.662395e+01  2.199543e+01  2.178092e+00  # O CO2
     50      17    2   0.6512  2.777150e+01  2.193846e+01  2.168841e+00  # C CO2
     51      17    1  -0.3256  2.891905e+01  2.188148e+01  2.159591e+00  # O CO2
     52      18    1  -0.3256  2.208888e+01  2.513489e+01  1.274988e+00  # O CO2
     53      18    2   0.6512  2.114429e+01  2.528204e+01  6.375820e-01  # C CO2
     54      18    1  -0.3256  2.019969e+01  2.542919e+01  1.750000e-04  # O CO2
     55      19    1  -0.3256  1.395910e+01  5.686000e+00  3.632916e+00  # O CO2
     56      19    2   0.6512  1.418656e+01  6.323572e+00  2.704496e+00  # C CO2
     57      19    1  -0.3256  1.441403e+01  6.961144e+00  1.776076e+00  # O CO2
     58      20    1  -0.3256  9.110179e+00  1.691260e+01  5.134986e+00  # O CO2
     59      20    2   0.6512  1.003568e+01  1.733562e+01  4.601406e+00  # C CO2
     60      20    1  -0.3256  1.096117e+01  1.775864e+01  4.067826e+00  # O CO2
     61      21    1  -0.3256  9.751551e+00  2.852081e+01  3.869054e+00  # O CO2
     62      21    2   0.6512  9.876631e+00  2.815340e+01  2.787589e+00  # C CO2
     63      21    1  -0.3256  1.000171e+01  2.778599e+01  1.706125e+00  # O CO2
     64      22    1  -0.3256  8.039242e+00  1.665095e+01  2.193351e+01  # O CO2
     65      22    2   0.6512  7.304079e+00  1.742607e+01  2.151051e+01  # C CO2
     66      22    1  -0.3256  6.568916e+00  1.820119e+01  2.108752e+01  # O CO2
     67      23    1  -0.3256  2.595228e+01  2.779386e+00  2.900012e+01  # O CO2
     68      23    2   0.6512  2.589716e+01  1.713479e+00  2.857467e+01  # C CO2
     69      23    1  -0.3256  2.584204e+01  6.475730e-01  2.814923e+01  # O CO2
     70      24    1  -0.3256  2.202787e+01  2.230628e+01  2.258426e+01  # O CO2
     71      24    2   0.6512  2.313852e+01  2.235939e+01  2.287378e+01  # C CO2
     72      24    1  -0.3256  2.424918e+01  2.241250e+01  2.316330e+01  # O CO2
     73      25    1  -0.3256  1.219538e+01  2.331209e+01  1.517242e+00  # O CO2
     74      25    2   0.6512  1.230265e+01  2.244292e+01  7.734490e-01  # C CO2
     75      25    1  -0.3256  1.240992e+01  2.157374e+01  2.965600e-02  # O CO2
     76      26    1  -0.3256  1.653756e+01  1.963276e+01  2.256155e+01  # O CO2
     77      26    2   0.6512  1.556017e+01  1.975320e+01  2.196959e+01  # C CO2
     78      26    1  -0.3256  1.458279e+01  1.987363e+01  2.137764e+01  # O CO2
     79      27    1  -0.3256  1.045427e+01  2.953701e+00  1.666777e+01  # O CO2
     80      27    2   0.6512  1.043034e+01  2.754410e+00  1.553644e+01  # C CO2
     81      27    1  -0.3256  1.040641e+01  2.555119e+00  1.440511e+01  # O CO2
     82      28    1  -0.3256  2.063630e+01  2.061051e+01  1.115438e+01  # O CO2
     83      28    2   0.6512  2.173053e+01  2.071353e+01  1.148942e+01  # C CO2
     84      28    1  -0.3256  2.282475e+01  2.081656e+01  1.182446e+01  # O CO2
     85      29    1  -0.3256  1.229739e+01  1.941421e+00  1.011016e+01  # O CO2
     86      29    2   0.6512  1.150098e+01  1.116458e+00  1.018346e+01  # C CO2
     87      29    1  -0.3256  1.070457e+01  2.914950e-01  1.025675e+01  # O CO2
     88      30    1  -0.3256  2.899839e+01  2.522178e+01  2.156305e+01  # O CO2
     89      30    2   0.6512  2.799181e+01  2.577194e+01  2.162889e+01  # C CO2
     90      30    1  -0.3256  2.698523e+01  2.632209e+01  2.169472e+01  # O CO2
     91      31    1  -0.3256 -2.658000e-03  1.346915e+01  2.308548e+01  # O CO2
     92      31    2   0.6512  1.049018e+00  1.307981e+01  2.333567e+01  # C CO2
     93      31    1  -0.3256  2.100694e+00  1.269048e+01  2.358586e+01  # O CO2
     94      32    1  -0.3256  1.914484e+01  2.733880e+01  6.003196e+00  # O CO2
     95      32    2   0.6512  1.953476e+01  2.628244e+01  6.231827e+00  # C CO2
     96      32    1  -0.3256  1.992468e+01  2.522608e+01  6.460458e+00  # O CO2
     97      33    1  -0.3256  2.365391e+01  1.885134e+01  1.236089e+01  # O CO2
     98      33    2   0.6512  2.336705e+01  1.774521e+01  1.224092e+01  # C CO2
     99      33    1  -0.3256  2.308019e+01  1.663908e+01  1.212094e+01  # O CO2
    100      34    1  -0.3256  3.037442e+00  1.116212e+01  5.709284e+00  # O CO2
    101      34    2   0.6512  4.146199e+00  1.090602e+01  5.868250e+00  # C CO2
    102      34    1  -0.3256  5.254955e+00  1.064991e+01  6.027216e+00  # O CO2
    103      35    1  -0.3256  2.111408e+01  2.231362e+01  3.091790e+00  # O CO2
    104      35    2   0.6512  2.110248e+01  2.340643e+01  3.446516e+00  # C CO2
    105      35    1  -0.3256  2.109088e+01  2.449924e+01  3.801242e+00  # O CO2
    106      36    1  -0.3256  2.408215e+01  2.751720e+01  2.489434e+01  # O CO2
    107      36    2   0.6512  2.506624e+01  2.765121e+01  2.547211e+01  # C CO2
    108      36    1  -0.3256  2.605033e+01  2.778521e+01  2.604987e+01  # O CO2
    109      37    1  -0.3256  1.575693e+01  4.395502e+00  8.393768e+00  # O CO2
    110      37    2   0.6512  1.689025e+01  4.479811e+00  8.563168e+00  # C CO2
    111      37    1  -0.3256  1.802356e+01  4.564119e+00  8.732569e+00  # O CO2
    112      38    1  -0.3256  2.101093e+01  1.886867e+01  7.352312e+00  # O CO2
    113      38    2   0.6512  2.178543e+01  1.809722e+01  7.706134e+00  # C CO2
    114      38    1  -0.3256  2.255994e+01  1.732576e+01  8.059956e+00  # O CO2
    115      39    1  -0.3256  1.554593e+01  2.595477e+00  1.816510e+01  # O CO2
    116      39    2   0.6512  1.630387e+01  3.277248e+00  1.763509e+01  # C CO2
    117      39    1  -0.3256  1.706182e+01  3.959019e+00  1.710508e+01  # O CO2
    118      40    1  -0.3256  2.575887e+01  2.420290e+01  2.863606e+01  # O CO2
    119      40    2   0.6512  2.469340e+01  2.459662e+01  2.880917e+01  # C CO2
    120      40    1  -0.3256  2.362793e+01  2.499034e+01  2.898228e+01  # O CO2
    121      41    1  -0.3256  9.657022e+00  1.604344e+01  2.900129e+01  # O CO2
    122      41    2   0.6512  1.015499e+01  1.707677e+01  2.893458e+01  # C CO2
    123      41    1  -0.3256  1.065297e+01  1.811010e+01  2.886786e+01  # O CO2
    124      42    1  -0.3256  2.332193e+01  1.177176e+01  1.134443e+01  # O CO2
    125      42    2   0.6512  2.243917e+01  1.183248e+01  1.061146e+01  # C CO2
    126      42    1  -0.3256  2.155641e+01  1.189320e+01  9.878486e+00  # O CO2
    127      43    1  -0.3256  1.127385e+01  1.108977e+01  2.906259e+00  # O CO2
    128      43    2   0.6512  1.231405e+01  1.075373e+01  2.552347e+00  # C CO2
    129      43    1  -0.3256  1.335426e+01  1.041769e+01  2.198434e+00  # O CO2
    130      44    1  -0.3256  1.133077e+01  2.211269e+01  1.992321e+01  # O CO2
    131      44    2   0.6512  1.040442e+01  2.149365e+01  2.020401e+01  # C CO2
    132      44    1  -0.3256  9.478065e+00  2.087460e+01  2.048482e+01  # O CO2
    133      45    1  -0.3256  1.090417e+01  1.430084e+01  1.113726e+01  # O CO2
    134      45    2   0.6512  1.084080e+01  1.525068e+01  1.049385e+01  # C CO2
    135      45    1  -0.3256  1.077743e+01  1.620052e+01  9.850424e+00  # O CO2
    136      46    1  -0.3256  3.860714e+00  6.981791e+00  1.609609e+01  # O CO2
    137      46    2   0.6512  3.335149e+00  6.840262e+00  1.508418e+01  # C CO2
    138      46    1  -0.3256  2.809585e+00  6.698734e+00  1.407228e+01  # O CO2
    139      47    1  -0.3256  8.346712e+00  7.500000e-05  2.600706e+01  # O CO2
    140      47    2   0.6512  7.352979e+00  5.768510e-01  2.601210e+01  # C CO2
    141      47    1  -0.3256  6.359246e+00  1.153628e+00  2.601714e+01  # O CO2
    142      48    1  -0.3256  2.697025e+01  1.559777e+01  2.508197e+01  # O CO2
    143      48    2   0.6512  2.670028e+01  1.557768e+01  2.619862e+01  # C CO2
    144      48    1  -0.3256  2.643031e+01  1.555758e+01  2.731527e+01  # O CO2
    145      49    1  -0.3256  2.162999e+01  1.320658e+01  2.029979e+01  # O CO2
    146      49    2   0.6512  2.240293e+01  1.235783e+01  2.034863e+01  # C CO2
    147      49    1  -0.3256  2.317587e+01  1.150908e+01  2.039747e+01  # O CO2
    148      50    1  -0.3256  2.007901e+01  1.393889e+01  8.915552e+00  # O CO2
    149      50    2   0.6512  1.926164e+01  1.443777e+01  8.280546e+00  # C CO2
    150      50    1  -0.3256  1.844427e+01  1.493664e+01  7.645540e+00  # O CO2
    151      51    1  -0.3256  2.207930e+01  1.956369e+01  2.763273e+01  # O CO2
    152      51    2   0.6512  2.258578e+01  1.881149e+01  2.833833e+01  # C CO2
    153      51    1  -0.3256  2.309225e+01  1.805928e+01  2.904394e+01  # O CO2
    154      52    1  -0.3256  5.926949e+00  6.500501e+00  2.155935e+01  # O CO2
    155      52    2   0.6512  6.638222e+00  5.692497e+00  2.115757e+01  # C CO2
    156      52    1  -0.3256  7.349495e+00  4.884494e+00  2.075580e+01  # O CO2
    157      53    1  -0.3256  1.173354e+01  2.597706e+01  2.464718e+01  # O CO2
    158      53    2   0.6512  1.279983e+01  2.555461e+01  2.457814e+01  # C CO2
    159      53    1  -0.3256  1.386612e+01  2.513216e+01  2.450910e+01  # O CO2
    160      54    1  -0.3256  2.000250e+01  2.690794e+01  2.237944e+01  # O CO2
    161      54    2   0.6512  2.106418e+01  2.677125e+01  2.279700e+01  # C CO2
    162      54    1  -0.3256  2.212585e+01  2.663455e+01  2.321457e+01  # O CO2
    163      55    1  -0.3256  1.749796e+01  2.378785e+01  6.778590e+00  # O CO2
    164      55    2   0.6512  1.651746e+01  2.428960e+01  6.451382e+00  # C CO2
    165      55    1  -0.3256  1.553695e+01  2.479135e+01  6.124174e+00  # O CO2
    166      56    1  -0.3256  9.736860e+00  1.577040e+01  2.682188e+01  # O CO2
    167      56    2   0.6512  1.081865e+01  1.599687e+01  2.713595e+01  # C CO2
    168      56    1  -0.3256  1.190044e+01  1.622334e+01  2.745002e+01  # O CO2
    169      57    1  -0.3256  1.993663e+00  2.491991e+01  2.424796e+01  # O CO2
    170      57    2   0.6512  1.380940e+00  2.543993e+01  2.506915e+01  # C CO2
    171      57    1  -0.3256  7.682180e-01  2.595995e+01  2.589034e+01  # O CO2
    172      58    1  -0.3256  5.303773e+00  2.829382e+00  2.404369e+01  # O CO2
    173      58    2   0.6512  6.227957e+00  2.160165e+00  2.390866e+01  # C CO2
    174      58    1  -0.3256  7.152141e+00  1.490947e+00  2.377363e+01  # O CO2
    175      59    1  -0.3256  1.025927e+01  2.086293e+01  4.253100e+00  # O CO2
    176      59    2   0.6512  9.245624e+00  2.075386e+01  3.723175e+00  # C CO2
    177      59    1  -0.3256  8.231976e+00  2.064479e+01  3.193249e+00  # O CO2
    178      60    1  -0.3256  6.354660e+00  1.527031e+00  9.680387e+00  # O CO2
    179      60    2   0.6512  5.520863e+00  2.195396e+00  1.010261e+01  # C CO2
    180      60    1  -0.3256  4.687066e+00  2.863760e+00  1.052483e+01  # O CO2
    181      61    1  -0.3256  1.044882e+01  2.625341e+01  1.150390e+01  # O CO2
    182      61    2   0.6512  1.157483e+01  2.602510e+01  1.151772e+01  # C CO2
    183      61    1  -0.3256  1.270083e+01  2.579678e+01  1.153154e+01  # O CO2
    184      62    1  -0.3256  1.466695e+01  1.357697e+01  6.893435e+00  # O CO2
    185      62    2   0.6512  1.397514e+01  1.274966e+01  6.496985e+00  # C CO2
    186      62    1  -0.3256  1.328334e+01  1.192236e+01  6.100534e+00  # O CO2
    187      63    1  -0.3256  2.591413e+01  1.533305e+01  1.918725e+01  # O CO2
    188      63    2   0.6512  2.607610e+01  1.469676e+01  1.824433e+01  # C CO2
    189      63    1  -0.3256  2.623808e+01  1.406046e+01  1.730142e+01  # O CO2
    190      64    1  -0.3256  1.468024e+01  1.084677e+01  2.688450e+01  # O CO2
    191      64    2   0.6512  1.406071e+01  9.879235e+00  2.686820e+01  # C CO2
    192      64    1  -0.3256  1.344118e+01  8.911704e+00  2.685190e+01  # O CO2
    193      65    1  -0.3256  7.331637e+00  6.598032e+00  1.782029e+01  # O CO2
    194      65    2   0.6512  6.870777e+00  6.224864e+00  1.683614e+01  # C CO2
    195      65    1  -0.3256  6.409917e+00  5.851695e+00  1.585198e+01  # O CO2
    196      66    1  -0.3256  2.323896e+01 -4.070000e-04  2.398736e+01  # O CO2
    197      66    2   0.6512  2.433620e+01  1.680000e-04  2.364640e+01  # C CO2
    198      66    1  -0.3256  2.543345e+01  7.430000e-04  2.330543e+01  # O CO2
    199      67    1  -0.3256 -5.600000e-05  2.056153e+01  2.121985e+01  # O CO2
    200      67    2   0.6512  6.305500e-02  1.960864e+01  2.185876e+01  # C CO2
    201      67    1  -0.3256  1.261660e-01  1.865574e+01  2.249767e+01  # O CO2
    202      68    1  -0.3256  7.175187e+00  1.676345e+01  1.756319e+01  # O CO2
    203      68    2   0.6512  6.594498e+00  1.674806e+01  1.855453e+01  # C CO2
    204      68    1  -0.3256  6.013809e+00  1.673266e+01  1.954588e+01  # O CO2
    205      69    1  -0.3256  4.457424e+00  8.720286e+00  1.276974e+01  # O CO2
    206      69    2   0.6512  4.207176e+00  9.841650e+00  1.278067e+01  # C CO2
    207      69    1  -0.3256  3.956928e+00  1.096301e+01  1.279160e+01  # O CO2
    208      70    1  -0.3256  2.004023e+01  1.740262e+01  1.711963e+01  # O CO2
    209      70    2   0.6512  1.903434e+01  1.693401e+01  1.682163e+01  # C CO2
    210      70    1  -0.3256  1.802845e+01  1.646541e+01  1.652364e+01  # O CO2
    211      71    1  -0.3256  2.481639e+01  2.059581e+01  1.075441e+01  # O CO2
    212      71    2   0.6512  2.432578e+01  2.157624e+01  1.041054e+01  # C CO2
    213      71    1  -0.3256  2.383516e+01  2.255668e+01  1.006668e+01  # O CO2
    214      72    1  -0.3256  1.548041e+01  1.813104e+01  2.894803e+01  # O CO2
    215      72    2   0.6512  1.603437e+01  1.714385e+01  2.875106e+01  # C CO2
    216      72    1  -0.3256  1.658832e+01  1.615667e+01  2.855409e+01  # O CO2
    217      73    1  -0.3256  1.579016e+01  1.624687e+01  2.127287e+01  # O CO2
    218      73    2   0.6512  1.513559e+01  1.705515e+01  2.176115e+01  # C CO2
    219      73    1  -0.3256  1.448101e+01  1.786342e+01  2.224944e+01  # O CO2
    220      74    1  -0.3256  2.981126e+00  1.582574e+01  2.485244e+01  # O CO2
    221      74    2   0.6512  3.482824e+00  1.493991e+01  2.431970e+01  # C CO2
    222      74    1  -0.3256  3.984523e+00  1.405409e+01  2.378695e+01  # O CO2
    223      75    1  -0.3256  2.767897e+01  1.693456e+01  1.303218e+01  # O CO2
    224      75    2   0.6512  2.825555e+01  1.615015e+01  1.364248e+01  # C CO2
    225      75    1  -0.3256  2.883212e+01  1.536575e+01  1.425278e+01  # O CO2
    226      76    1  -0.3256  1.636082e+01  2.262974e+01  1.874873e+01  # O CO2
    227      76    2   0.6512  1.540785e+01  2.219660e+01  1.827497e+01  # C CO2
    228      76    1  -0.3256  1.445489e+01  2.176347e+01  1.780120e+01  # O CO2
    229      77    1  -0.3256  3.751525e+00  1.927494e+01  5.251531e+00  # O CO2
    230      77    2   0.6512  4.317658e+00  2.018614e+01  4.839957e+00  # C CO2
    231      77    1  -0.3256  4.883792e+00  2.109735e+01  4.428383e+00  # O CO2
    232      78    1  -0.3256  1.831548e+01  1.717853e+01  6.723134e+00  # O CO2
    233      78    2   0.6512  1.813134e+01  1.632793e+01  5.972957e+00  # C CO2
    234      78    1  -0.3256  1.794720e+01  1.547732e+01  5.222780e+00  # O CO2
    235      79    1  -0.3256  8.162111e+00  1.274474e+01  1.623415e+01  # O CO2
    236      79    2   0.6512  9.030026e+00  1.286197e+01  1.697791e+01  # C CO2
    237      79    1  -0.3256  9.897940e+00  1.297921e+01  1.772167e+01  # O CO2
    238      80    1  -0.3256  2.203438e+01  4.422935e+00  1.752517e+01  # O CO2
    239      80    2   0.6512  2.140403e+01  3.492137e+00  1.728751e+01  # C CO2
    240      80    1  -0.3256  2.077369e+01  2.561338e+00  1.704984e+01  # O CO2
    241      81    1  -0.3256  2.537969e+01  2.786507e+01  1.846231e+01  # O CO2
    242      81    2   0.6512  2.511899e+01  2.674604e+01  1.846412e+01  # C CO2
    243      81    1  -0.3256  2.485828e+01  2.562701e+01  1.846594e+01  # O CO2
    244      82    1  -0.3256  2.651493e+01  2.481575e+01  1.495455e+01  # O CO2
    245      82    2   0.6512  2.634965e+01  2.541913e+01  1.399079e+01  # C CO2
    246      82    1  -0.3256  2.618438e+01  2.602250e+01  1.302703e+01  # O CO2
    247      83    1  -0.3256  1.550012e+01  8.723605e+00  1.891625e+01  # O CO2
    248      83    2   0.6512  1.643643e+01  8.757219e+00  1.825113e+01  # C CO2
    249      83    1  -0.3256  1.737275e+01  8.790833e+00  1.758601e+01  # O CO2
    250      84    1  -0.3256  9.073393e+00  2.312490e+01  1.077782e+01  # O CO2
    251      84    2   0.6512  9.481601e+00  2.324943e+01  1.184462e+01  # C CO2
    252      84    1  -0.3256  9.889809e+00  2.337397e+01  1.291141e+01  # O CO2
    253      85    1  -0.3256  2.522950e+01  1.717772e+01  2.099340e+01  # O CO2
    254      85    2   0.6512  2.443378e+01  1.676411e+01  2.027511e+01  # C CO2
    255      85    1  -0.3256  2.363806e+01  1.635048e+01  1.955681e+01  # O CO2
    256      86    1  -0.3256  2.063286e+01  9.799047e+00  1.472542e+01  # O CO2
    257      86    2   0.6512  1.984697e+01  9.746000e+00  1.556193e+01  # C CO2
    258      86    1  -0.3256  1.906108e+01  9.692953e+00  1.639845e+01  # O CO2
    259      87    1  -0.3256  2.267472e+01  2.792411e+01  2.807465e+01  # O CO2
    260      87    2   0.6512  2.188261e+01  2.711735e+01  2.786993e+01  # C CO2
    261      87    1  -0.3256  2.109051e+01  2.631059e+01  2.766520e+01  # O CO2
    262      88    1  -0.3256  1.510543e+01  2.699311e+01  7.407622e+00  # O CO2
    263      88    2   0.6512  1.436901e+01  2.611172e+01  7.439712e+00  # C CO2
    264      88    1  -0.3256  1.363259e+01  2.523033e+01  7.471803e+00  # O CO2
    265      89    1  -0.3256  2.749780e+01  1.652431e+00  2.035544e+01  # O CO2
    266      89    2   0.6512  2.733102e+01  2.519351e+00  2.109086e+01  # C CO2
    267      89    1  -0.3256  2.716424e+01  3.386271e+00  2.182627e+01  # O CO2
    268      90    1  -0.3256  2.504254e+01  1.702108e+01  2.616625e+01  # O CO2
    269      90    2   0.6512  2.596076e+01  1.763021e+01  2.649187e+01  # C CO2
    270      90    1  -0.3256  2.687897e+01  1.823935e+01  2.681750e+01  # O CO2
    271      91    1  -0.3256  1.918277e+01  2.175258e+00  2.391186e+01  # O CO2
    272      91    2   0.6512  1.958714e+01  2.334381e+00  2.284820e+01  # C CO2
    273      91    1  -0.3256  1.999151e+01  2.493504e+00  2.178455e+01  # O CO2
    274      92    1  -0.3256  2.900050e+01  1.298879e+01  3.362966e+00  # O CO2
    275      92    2   0.6512  2.899998e+01  1.190849e+01  3.754297e+00  # C CO2
    276      92    1  -0.3256  2.899946e+01  1.082818e+01  4.145629e+00  # O CO2
    277      93    1  -0.3256  1.776136e+01  1.297064e+01  1.173123e+01  # O CO2
    278      93    2   0.6512  1.790431e+01  1.299818e+01  1.059149e+01  # C CO2
    279      93    1  -0.3256  1.804726e+01  1.302572e+01  9.451748e+00  # O CO2
    280      94    1  -0.3256  9.346902e+00  8.184946e+00  6.630263e+00  # O CO2
    281      94    2   0.6512  1.039379e+01  8.027369e+00  7.076809e+00  # C CO2
    282      94    1  -0.3256  1.144067e+01  7.869792e+00  7.523355e+00  # O CO2
    283      95    1  -0.3256  2.590445e+01  2.037969e+01  8.573578e+00  # O CO2
    284      95    2   0.6512  2.494745e+01  2.097181e+01  8.341724e+00  # C CO2
    285      95    1  -0.3256  2.399046e+01  2.156393e+01  8.109871e+00  # O CO2
    286      96    1  -0.3256  2.098855e+01  6.006110e-01  2.401610e+01  # O CO2
    287      96    2   0.6512  2.039077e+01  3.000970e-01  2.308199e+01  # C CO2
    288      96    1  -0.3256  1.979299e+01 -4.160000e-04  2.214789e+01  # O CO2
    289      97    1  -0.3256  2.998101e+00  2.281131e+01  2.343590e+01  # O CO2
    290      97    2   0.6512  2.516384e+00  2.279639e+01  2.447894e+01  # C CO2
    291      97    1  -0.3256  2.034666e+00  2.278148e+01  2.552198e+01  # O CO2
    292      98    1  -0.3256  2.116014e+01  5.783454e+00  2.243473e+01  # O CO2
    293      98    2   0.6512  2.025095e+01  5.147608e+00  2.273354e+01  # C CO2
    294      98    1  -0.3256  1.934177e+01  4.511762e+00  2.303234e+01  # O CO2
    295      99    1  -0.3256  1.462613e+01  8.142553e+00  4.572624e+00  # O CO2
    296      99    2   0.6512  1.418632e+01  8.146716e+00  5.634108e+00  # C CO2
    297      99    1  -0.3256  1.374651e+01  8.150880e+00  6.695592e+00  # O CO2
    298     100    1  -0.3256  2.901322e+01  2.839907e+01  1.963741e+01  # O CO2
    299     100    2   0.6512  2.790632e+01  2.870641e+01  1.966006e+01  # C CO2
    300     100    1  -0.3256  2.679942e+01  2.901374e+01  1.968272e+01  # O CO2
    301     101    1  -0.3256  2.678045e+01  2.852965e+01  2.181595e+01  # O CO2
    302     101    2   0.6512  2.789391e+01  2.878204e+01  2.194522e+01  # C CO2
    303     101    1  -0.3256  2.900736e+01  2.903443e+01  2.207449e+01  # O CO2
    304     102    1  -0.3256  2.715911e+01  1.343455e+01  5.977614e+00  # O CO2
    305     102    2   0.6512  2.809072e+01  1.276220e+01  5.962113e+00  # C CO2
    306     102    1  -0.3256  2.902234e+01  1.208985e+01  5.946611e+00  # O CO2
    307     103    1  -0.3256  1.815524e+01  1.955562e+01  1.595733e+01  # O CO2
    308     103    2   0.6512  1.733068e+01  1.875548e+01  1.596491e+01  # C CO2
    309     103    1  -0.3256  1.650611e+01  1.795533e+01  1.597249e+01  # O CO2
    310     104    1  -0.3256  2.773939e+01  2.178754e+01  9.169175e+00  # O CO2
    311     104    2   0.6512  2.686678e+01  2.237893e+01  9.626354e+00  # C CO2
    312     104    1  -0.3256  2.599417e+01  2.297031e+01  1.008353e+01  # O CO2
    313     105    1  -0.3256  5.943390e+00  8.479666e+00  2.539238e+01  # O CO2
    314     105    2   0.6512  6.560097e+00  7.536801e+00  2.561795e+01  # C CO2
    315     105    1  -0.3256  7.176803e+00  6.593937e+00  2.584352e+01  # O CO2
    316     106    1  -0.3256  6.571546e+00  2.349229e+01  5.340261e+00  # O CO2
    317     106    2   0.6512  5.588385e+00  2.405430e+01  5.534519e+00  # C CO2
    318     106    1  -0.3256  4.605224e+00  2.461632e+01  5.728778e+00  # O CO2
    319     107    1  -0.3256  1.547481e+01  1.990637e+01  1.412041e+01  # O CO2
    320     107    2   0.6512  1.535162e+01  1.996097e+01  1.297934e+01  # C CO2
    321     107    1  -0.3256  1.522843e+01  2.001557e+01  1.183827e+01  # O CO2
    322     108    1  -0.3256  2.684809e+01  3.199662e+00  1.893294e+01  # O CO2
    323     108    2   0.6512  2.576485e+01  3.444046e+00  1.863785e+01  # C CO2
    324     108    1  -0.3256  2.468162e+01  3.688429e+00  1.834276e+01  # O CO2
    325     109    1  -0.3256  1.075861e+01  2.956652e+00  4.575031e+00  # O CO2
    326     109    2   0.6512  9.699647e+00  3.298370e+00  4.288622e+00  # C CO2
    327     109    1  -0.3256  8.640685e+00  3.640088e+00  4.002214e+00  # O CO2
    328     110    1  -0.3256  3.591037e+00  2.266405e+01  3.587231e+00  # O CO2
    329     110    2   0.6512  2.897918e+00  2.176332e+01  3.755967e+00  # C CO2
    330     110    1  -0.3256  2.204798e+00  2.086259e+01  3.924703e+00  # O CO2
    331     111    1  -0.3256  2.307100e+01  1.205877e+01  2.341958e+00  # O CO2
    332     111    2   0.6512  2.223774e+01  1.240559e+01  3.053011e+00  # C CO2
    333     111    1  -0.3256  2.140448e+01  1.275240e+01  3.764063e+00  # O CO2
    334     112    1  -0.3256  2.300478e+01  3.026123e+00  1.960333e+01  # O CO2
    335     112    2   0.6512  2.245789e+01  2.184488e+00  1.904408e+01  # C CO2
    336     112    1  -0.3256  2.191100e+01  1.342854e+00  1.848483e+01  # O CO2
    337     113    1  -0.3256  1.893301e+01  2.895606e+00  7.434455e+00  # O CO2
    338     113    2   0.6512  1.779857e+01  2.716345e+00  7.467797e+00  # C CO2
    339     113    1  -0.3256  1.666413e+01  2.537084e+00  7.501138e+00  # O CO2
    340     114    1  -0.3256  6.665895e+00  2.100675e+01  8.152571e+00  # O CO2
    341     114    2   0.6512  6.941294e+00  2.161177e+01  9.089752e+00  # C CO2
    342     114    1  -0.3256  7.216693e+00  2.221679e+01  1.002693e+01  # O CO2
    343     115    1  -0.3256  9.026681e+00  9.325527e+00  2.245230e+01  # O CO2
    344     115    2   0.6512  9.002753e+00  9.447187e+00  2.131001e+01  # C CO2
    345     115    1  -0.3256  8.978826e+00  9.568847e+00  2.016772e+01  # O CO2
    346     116    1  -0.3256  3.098680e+00  4.882192e+00  1.721128e+01  # O CO2
    347     116    2   0.6512  1.961459e+00  5.019250e+00  1.730152e+01  # C CO2
    348     116    1  -0.3256  8.242370e-01  5.156307e+00  1.739176e+01  # O CO2
    349     117    1  -0.3256  9.996469e+00  2.758262e+01  1.393162e+01  # O CO2
    350     117    2   0.6512  1.014119e+01  2.829130e+01  1.482439e+01  # C CO2
    351     117    1  -0.3256  1.028592e+01  2.899998e+01  1.571715e+01  # O CO2
    352     118    1  -0.3256  1.594337e+01  2.230538e+01  1.614391e+01  # O CO2
    353     118    2   0.6512  1.690422e+01  2.284780e+01  1.646445e+01  # C CO2
    354     118    1  -0.3256  1.786507e+01  2.339022e+01  1.678499e+01  # O CO2
    355     119    1  -0.3256  1.215403e+01  1.381395e+01  1.695190e+01  # O CO2
    356     119    2   0.6512  1.329263e+01  1.366494e+01  1.699181e+01  # C CO2
    357     119    1  -0.3256  1.443122e+01  1.351594e+01  1.703173e+01  # O CO2
    358     120    1  -0.3256  2.508910e+01  5.104146e+00  2.899234e+01  # O CO2
    359     120    2   0.6512  2.431818e+01  4.252164e+00  2.899134e+01  # C CO2
    360     120    1  -0.3256  2.354725e+01  3.400183e+00  2.899034e+01  # O CO2
    361     121    1  -0.3256  1.029472e+01  1.606493e+00  2.298073e+01  # O CO2
    362     121    2   0.6512  9.524316e+00  2.455759e+00  2.290712e+01  # C CO2
    363     121    1  -0.3256  8.753907e+00  3.305025e+00  2.283351e+01  # O CO2
    364     122    1  -0.3256  1.593270e+01  1.397183e+01  1.057618e+01  # O CO2
    365     122    2   0.6512  1.569968e+01  1.373252e+01  1.167556e+01  # C CO2
    366     122    1  -0.3256  1.546667e+01  1.349321e+01  1.277494e+01  # O CO2